 Gaussian 09, Revision A.02,
 Gaussian 09:  EM64L-G09RevA.02 11-Jun-2009

 -------------------------------------------------------------------
 #HF/6-31G* SCF=tight Test Pop=MK iop(6/33=2) NoSymm iop(6/42=6) opt
 -------------------------------------------------------------------

 ---------------------
 remark line goes here
 ---------------------
 Symbolic Z-matrix:
 Charge =  0 Multiplicity = 1

 SCF Done:  E(RHF) =  -879.590366958     A.U. after   12 cycles
 SCF Done:  E(RHF) =  -879.609659499     A.U. after   10 cycles
 SCF Done:  E(RHF) =  -879.612109334     A.U. after   10 cycles
 SCF Done:  E(RHF) =  -879.612241886     A.U. after    8 cycles
 SCF Done:  E(RHF) =  -879.612252718     A.U. after    7 cycles
 Optimization completed.
    -- Stationary point found.

                          Input orientation:
 ---------------------------------------------------------------------
 Center     Atomic      Atomic             Coordinates (Angstroms)
 Number     Number       Type             X           Y           Z
 ---------------------------------------------------------------------
      1          6           0       -3.881816    1.175413    0.077646
      2          1           0       -3.484955    0.172034    0.146978
      3          1           0       -3.524306    1.633589   -0.842436
      4          1           0       -4.968101    1.123374    0.038073
      5          8           0       -3.446715    1.878012    1.198216
      6          6           0       -3.882401    3.201146    1.250506
      7          1           0       -4.969314    3.253922    1.262339
      8          1           0       -3.532283    3.761747    0.385955
      9          6           0       -3.327684    3.817633    2.517317
     10          1           0       -2.241398    3.766287    2.505354
     11          1           0       -3.678373    3.258482    3.381704
     12          8           0       -3.763538    5.142505    2.570339
     13          6           0       -3.332783    5.855221    3.689645
     14          1           0       -2.246643    5.895544    3.730610
     15          1           0       -3.683579    5.387754    4.606936
     16          6           0       -3.892958    7.258122    3.584028
     17          1           0       -3.542091    7.725679    2.666828
     18          1           0       -4.979091    7.217866    3.543193
     19          8           0       -3.462377    7.971414    4.703385
     20          6           0       -3.898130    9.295858    4.756325
     21          1           0       -4.984484    9.347413    4.768307
     22          1           0       -3.547499    9.855221    3.891953
     23          6           0       -3.342943    9.911609    6.023482
     24          1           0       -2.256582    9.860044    6.011495
     25          1           0       -3.693575    9.352234    6.887854
     26          8           0       -3.778664   11.236053    6.076472
     27          6           0       -3.348119   11.949391    7.195801
     28          1           0       -2.261969   11.989599    7.236653
     29          1           0       -3.698975   11.481798    8.113006
     30          6           0       -3.908208   13.352366    7.090347
     31          1           0       -3.557417   13.819878    6.173107
     32          1           0       -4.994326   13.312105    7.049390
     33          8           0       -3.477430   14.065109    8.209738
     34          6           0       -3.913102   15.389984    8.262974
     35          1           0       -4.999417   15.442137    8.275396
     36          1           0       -3.562308   15.949928    7.399054
     37          6           0       -3.359307   16.007638    9.529037
     38          1           0       -2.274207   15.951324    9.511761
     39          1           0       -3.711686   15.443404   10.388327
     40          8           0       -3.804764   17.337032    9.568841
     41          1           0       -3.478355   17.760538   10.349501
 ---------------------------------------------------------------------

 Alpha  occ. eigenvalues --  -20.56332 -20.56330 -20.56252 -20.56250 -20.56068
 Alpha  occ. eigenvalues --  -20.56048 -11.27160 -11.27131 -11.27128 -11.27107
 Alpha  occ. eigenvalues --  -11.27095 -11.27055 -11.27054 -11.26992 -11.26936
 Alpha  occ. eigenvalues --  -11.26901 -11.26848  -1.39840  -1.39413  -1.38865
 Alpha  occ. eigenvalues --   -1.38294  -1.37872  -1.36605  -1.06408  -1.04499
 Alpha  occ. eigenvalues --   -1.01645  -0.98094  -0.94253  -0.90319  -0.84581
 Alpha  occ. eigenvalues --   -0.83835  -0.83421  -0.83187  -0.82996  -0.71531
 Alpha  occ. eigenvalues --   -0.70887  -0.70023  -0.69532  -0.68691  -0.67304
 Alpha  occ. eigenvalues --   -0.66901  -0.66038  -0.64893  -0.64705  -0.63842
 Alpha  occ. eigenvalues --   -0.62267  -0.62128  -0.61021  -0.60258  -0.59307
 Alpha  occ. eigenvalues --   -0.57556  -0.56509  -0.54378  -0.53821  -0.52166
 Alpha  occ. eigenvalues --   -0.51501  -0.49894  -0.49391  -0.47667  -0.47244
 Alpha  occ. eigenvalues --   -0.47011  -0.46959  -0.46870  -0.44326  -0.42255
 Alpha  occ. eigenvalues --   -0.42123  -0.42038  -0.42021  -0.41969
 Alpha virt. eigenvalues --    0.22150   0.23495   0.23720   0.23979   0.24341
 Alpha virt. eigenvalues --    0.24550   0.28308   0.28895   0.29039   0.29183
 Alpha virt. eigenvalues --    0.29777   0.30379   0.30452   0.31142   0.31782

 Mulliken atomic charges:
              1
     1  C   -0.159406
     2  H    0.177745
     3  H    0.143171
     4  H    0.143171
     5  O   -0.619532
     6  C    0.012726
     7  H    0.151107
     8  H    0.151107
     9  C    0.017052
    10  H    0.154820
    11  H    0.154820
    12  O   -0.651308
    13  C    0.017309
    14  H    0.154046
    15  H    0.154046
    16  C    0.016919
    17  H    0.153994
    18  H    0.153994
    19  O   -0.651085
    20  C    0.017015
    21  H    0.154180
    22  H    0.154180
    23  C    0.017051
    24  H    0.154083
    25  H    0.154083
    26  O   -0.650978
    27  C    0.016903
    28  H    0.153789
    29  H    0.153789
    30  C    0.016994
    31  H    0.154276
    32  H    0.154276
    33  O   -0.650539
    34  C    0.020181
    35  H    0.155612
    36  H    0.155612
    37  C   -0.006402
    38  H    0.152283
    39  H    0.152283
    40  O   -0.747646
    41  H    0.444278
 Sum of Mulliken atomic charges =   0.00000

 Dipole moment (field-independent basis, Debye):
    X=              0.2014    Y=             -0.1792    Z=              0.2265  Tot=              0.3522
 Quadrupole moment (field-independent basis, Debye-Ang):
   XX=           -105.8545   YY=           -107.1005   ZZ=            -84.0652
   XY=             12.4060   XZ=              5.1269   YZ=             17.4504

 Normal termination of Gaussian 09 at Tue May  2 10:07:52 2017.
