 Gaussian 09, Revision A.02,
 Gaussian 09:  EM64L-G09RevA.02 11-Jun-2009

 -------------------------------------------------------------------
 #HF/6-31G* SCF=tight Test Pop=MK iop(6/33=2) NoSymm iop(6/42=6) opt
 -------------------------------------------------------------------

 ---------------------
 remark line goes here
 ---------------------
 Symbolic Z-matrix:
 Charge =  0 Multiplicity = 1

 SCF Done:  E(RHF) =  -860.576677026     A.U. after   15 cycles
 SCF Done:  E(RHF) =  -860.634075623     A.U. after   14 cycles
 SCF Done:  E(RHF) =  -860.653471659     A.U. after   15 cycles
 SCF Done:  E(RHF) =  -860.677031915     A.U. after   14 cycles
 SCF Done:  E(RHF) =  -860.674300168     A.U. after   13 cycles
 SCF Done:  E(RHF) =  -860.680036927     A.U. after   13 cycles
 SCF Done:  E(RHF) =  -860.683446086     A.U. after   12 cycles
 SCF Done:  E(RHF) =  -860.683043654     A.U. after   13 cycles
 SCF Done:  E(RHF) =  -860.686508815     A.U. after   13 cycles
 SCF Done:  E(RHF) =  -860.686245699     A.U. after   13 cycles
 SCF Done:  E(RHF) =  -860.697846424     A.U. after   11 cycles
 SCF Done:  E(RHF) =  -860.697929511     A.U. after   11 cycles
 SCF Done:  E(RHF) =  -860.698032683     A.U. after   12 cycles
 SCF Done:  E(RHF) =  -860.698063406     A.U. after   11 cycles
 SCF Done:  E(RHF) =  -860.698078343     A.U. after   10 cycles
 SCF Done:  E(RHF) =  -860.698082603     A.U. after   10 cycles
 SCF Done:  E(RHF) =  -860.698083878     A.U. after    9 cycles
 SCF Done:  E(RHF) =  -860.698084216     A.U. after    8 cycles
 SCF Done:  E(RHF) =  -860.698084318     A.U. after    8 cycles
 SCF Done:  E(RHF) =  -860.698084354     A.U. after    8 cycles
 Optimization completed.
    -- Stationary point found.

                          Input orientation:
 ---------------------------------------------------------------------
 Center     Atomic      Atomic             Coordinates (Angstroms)
 Number     Number       Type             X           Y           Z
 ---------------------------------------------------------------------
      1          6           0       -3.244874    1.637424   -0.322380
      2          1           0       -3.688574    2.109235    0.547255
      3          1           0       -2.896801    2.441736   -0.964288
      4          6           0       -4.320706    0.836946   -1.059565
      5          1           0       -4.703881    0.019599   -0.455197
      6          1           0       -5.160294    1.480195   -1.300362
      7          1           0       -3.953643    0.417537   -1.988933
      8          6           0       -1.996979    0.840083    0.126982
      9          6           0       -1.067514    1.774063    0.926929
     10          1           0       -0.194722    1.241673    1.292739
     11          1           0       -0.719375    2.575746    0.284683
     12          1           0       -1.577796    2.217632    1.773141
     13          6           0       -1.231618    0.264281   -1.070424
     14          1           0       -1.818585   -0.460278   -1.618405
     15          1           0       -0.957138    1.067531   -1.746558
     16          1           0       -0.324749   -0.232403   -0.747501
     17          6           0       -2.414573   -0.307519    1.037310
     18          8           0       -2.161096   -1.456058    0.878269
     19          8           0       -3.118779    0.110888    2.098065
     20          6           0       -3.551153   -0.882925    3.001936
     21          1           0       -4.191220   -1.583776    2.488081
     22          1           0       -2.694836   -1.419603    3.382035
     23          6           0       -4.279241   -0.093463    4.083934
     24          1           0       -3.583618    0.598245    4.537686
     25          1           0       -5.077288    0.478146    3.634840
     26          7           0       -4.893638   -0.894724    5.191371
     27          6           0       -3.889532   -1.788604    5.827900
     28          1           0       -4.329633   -2.239097    6.701484
     29          1           0       -3.600019   -2.566122    5.138105
     30          1           0       -3.024003   -1.207864    6.113052
     31          6           0       -6.024856   -1.729722    4.661748
     32          1           0       -6.451828   -2.299855    5.469644
     33          1           0       -6.785334   -1.077875    4.267441
     34          1           0       -5.634482   -2.397150    3.909300
     35          6           0       -5.381970    0.130979    6.227057
     36          1           0       -4.471440    0.553807    6.632513
     37          1           0       -5.926491    0.877598    5.674056
     38          6           0       -6.316581   -0.408576    7.292638
     39          1           0       -6.393928    0.381829    8.034856
     40          1           0       -5.936145   -1.282565    7.808158
     41          6           0       -7.752592   -0.669664    6.729006
     42          8           0       -8.317388   -1.649726    7.188598
     43          8           0       -8.096087    0.135395    5.856801
 ---------------------------------------------------------------------

 Alpha  occ. eigenvalues --  -20.64605 -20.58063 -20.42807 -20.42648 -15.73405
 Alpha  occ. eigenvalues --  -11.40311 -11.34184 -11.33302 -11.32654 -11.29931
 Alpha  occ. eigenvalues --  -11.29701 -11.27420 -11.27165 -11.24655 -11.24302
 Alpha  occ. eigenvalues --  -11.23247 -11.23032 -11.20975  -1.51012  -1.40190
 Alpha  occ. eigenvalues --   -1.37247  -1.31871  -1.21650  -1.14443  -1.09912
 Alpha  occ. eigenvalues --   -1.06050  -1.03986  -1.02612  -0.99448  -0.95965
 Alpha  occ. eigenvalues --   -0.91688  -0.88537  -0.85891  -0.85496  -0.80262
 Alpha  occ. eigenvalues --   -0.75675  -0.73816  -0.72511  -0.71596  -0.70681
 Alpha  occ. eigenvalues --   -0.69294  -0.67404  -0.65172  -0.64112  -0.63306
 Alpha  occ. eigenvalues --   -0.62462  -0.61434  -0.60962  -0.60366  -0.59222
 Alpha  occ. eigenvalues --   -0.59088  -0.58365  -0.57854  -0.57236  -0.55931
 Alpha  occ. eigenvalues --   -0.55745  -0.55437  -0.54568  -0.53944  -0.53580
 Alpha  occ. eigenvalues --   -0.53242  -0.52070  -0.50400  -0.49643  -0.48530
 Alpha  occ. eigenvalues --   -0.47950  -0.46753  -0.45679  -0.34349  -0.32676
 Alpha  occ. eigenvalues --   -0.32559
 Alpha virt. eigenvalues --    0.16000   0.16329   0.19123   0.20385   0.21495
 Alpha virt. eigenvalues --    0.22313   0.23203   0.24296   0.25066   0.25255
 Alpha virt. eigenvalues --    0.25768   0.26458   0.26872   0.27677   0.28364

 Mulliken atomic charges:
              1
     1  C   -0.301049
     2  H    0.179537
     3  H    0.174000
     4  C   -0.495696
     5  H    0.158813
     6  H    0.178562
     7  H    0.174060
     8  C   -0.151115
     9  C   -0.481760
    10  H    0.173265
    11  H    0.181394
    12  H    0.179969
    13  C   -0.463383
    14  H    0.187340
    15  H    0.165242
    16  H    0.180374
    17  C    0.835609
    18  O   -0.567201
    19  O   -0.651694
    20  C   -0.008070
    21  H    0.205972
    22  H    0.196674
    23  C   -0.164014
    24  H    0.224146
    25  H    0.251802
    26  N   -0.595523
    27  C   -0.335403
    28  H    0.248549
    29  H    0.216001
    30  H    0.211298
    31  C   -0.379110
    32  H    0.270760
    33  H    0.287350
    34  H    0.196212
    35  C   -0.162254
    36  H    0.183785
    37  H    0.264459
    38  C   -0.459888
    39  H    0.198937
    40  H    0.173985
    41  C    0.756809
    42  O   -0.698280
    43  O   -0.740466
 Sum of Mulliken atomic charges =   0.00000

 Dipole moment (field-independent basis, Debye):
    X=             12.8089    Y=              1.6789    Z=             -4.7964  Tot=             13.7801
 Quadrupole moment (field-independent basis, Debye-Ang):
   XX=           -280.1850   YY=           -112.8664   ZZ=           -158.0401
   XY=            -12.7158   XZ=            107.4404   YZ=              4.9066

 Normal termination of Gaussian 09 at Thu Apr  6 12:18:22 2017.
