 Gaussian 09, Revision A.02,
 Gaussian 09:  EM64L-G09RevA.02 11-Jun-2009

 -------------------------------------------------------------------
 #HF/6-31G* SCF=tight Test Pop=MK iop(6/33=2) NoSymm iop(6/42=6) opt
 -------------------------------------------------------------------

 ---------------------
 remark line goes here
 ---------------------
 Symbolic Z-matrix:
 Charge =  0 Multiplicity = 1

 SCF Done:  E(RHF) =  -534.682068546     A.U. after   13 cycles
 SCF Done:  E(RHF) =  -534.723831253     A.U. after   12 cycles
 SCF Done:  E(RHF) =  -534.702697001     A.U. after   12 cycles
 SCF Done:  E(RHF) =  -534.751451910     A.U. after   11 cycles
 SCF Done:  E(RHF) =  -534.752671110     A.U. after   10 cycles
 SCF Done:  E(RHF) =  -534.752837316     A.U. after   10 cycles
 SCF Done:  E(RHF) =  -534.752853265     A.U. after    9 cycles
 SCF Done:  E(RHF) =  -534.752856053     A.U. after    8 cycles
 SCF Done:  E(RHF) =  -534.752857600     A.U. after    8 cycles
 SCF Done:  E(RHF) =  -534.752858361     A.U. after    8 cycles
 SCF Done:  E(RHF) =  -534.752858546     A.U. after    7 cycles
 SCF Done:  E(RHF) =  -534.752858604     A.U. after    7 cycles
 Optimization completed.
    -- Stationary point found.

                          Input orientation:
 ---------------------------------------------------------------------
 Center     Atomic      Atomic             Coordinates (Angstroms)
 Number     Number       Type             X           Y           Z
 ---------------------------------------------------------------------
      1          1           0       -6.020227   -0.391719   -0.000726
      2          8           0       -5.276559    0.193313   -0.002132
      3          6           0       -4.087667   -0.550753    0.000269
      4          1           0       -4.015092   -1.182579    0.881423
      5          1           0       -4.014699   -1.187640   -0.877201
      6          6           0       -2.942443    0.439105   -0.002330
      7          1           0       -3.009484    1.078529    0.874952
      8          1           0       -3.009145    1.073524   -0.883262
      9          8           0       -1.751331   -0.287994   -0.000040
     10          6           0       -0.592223    0.488503   -0.001866
     11          1           0       -0.553118    1.126098   -0.882174
     12          1           0       -0.552701    1.129632    0.875854
     13          6           0        0.592702   -0.454476   -0.000212
     14          1           0        0.553516   -1.095261   -0.878197
     15          1           0        0.553269   -1.092417    0.879832
     16          8           0        1.751811    0.322022   -0.001312
     17          6           0        2.942922   -0.405086   -0.001269
     18          1           0        3.010027   -1.041551    0.878155
     19          1           0        3.009523   -1.042467   -0.880067
     20          6           0        4.088182    0.584746   -0.002123
     21          1           0        4.015843    1.219447    0.876976
     22          1           0        4.015090    1.218761   -0.881654
     23          8           0        5.277069   -0.159375   -0.002343
     24          1           0        6.020736    0.425636   -0.002553
 ---------------------------------------------------------------------

 Alpha  occ. eigenvalues --  -20.56198 -20.56198 -20.56038 -20.56038 -11.27074
 Alpha  occ. eigenvalues --  -11.27074 -11.27043 -11.26978 -11.26901 -11.26901
 Alpha  occ. eigenvalues --   -1.39482  -1.38479  -1.36636  -1.36526  -1.05263
 Alpha  occ. eigenvalues --   -1.00733  -0.94849  -0.84368  -0.83493  -0.82956
 Alpha  occ. eigenvalues --   -0.71946  -0.70520  -0.70300  -0.68041  -0.65502
 Alpha  occ. eigenvalues --   -0.64433  -0.64416  -0.61236  -0.60586  -0.58993
 Alpha  occ. eigenvalues --   -0.55489  -0.54570  -0.52240  -0.51223  -0.47772
 Alpha  occ. eigenvalues --   -0.47220  -0.46879  -0.44350  -0.44240  -0.42081
 Alpha  occ. eigenvalues --   -0.41943
 Alpha virt. eigenvalues --    0.21979   0.22463   0.23939   0.24569   0.28775
 Alpha virt. eigenvalues --    0.28911   0.29414   0.30691   0.31498   0.32050
 Alpha virt. eigenvalues --    0.33127   0.34762   0.36552   0.36946   0.37356

 Mulliken atomic charges:
              1
     1  H    0.444226
     2  O   -0.747744
     3  C   -0.006424
     4  H    0.152322
     5  H    0.152319
     6  C    0.020374
     7  H    0.155358
     8  H    0.155363
     9  O   -0.650320
    10  C    0.016944
    11  H    0.153777
    12  H    0.153807
    13  C    0.016943
    14  H    0.153776
    15  H    0.153808
    16  O   -0.650321
    17  C    0.020375
    18  H    0.155354
    19  H    0.155371
    20  C   -0.006427
    21  H    0.152320
    22  H    0.152328
    23  O   -0.747752
    24  H    0.444225
 Sum of Mulliken atomic charges =   0.00000

 Dipole moment (field-independent basis, Debye):
    X=              0.0000    Y=              0.0000    Z=              0.0020  Tot=              0.0020
 Quadrupole moment (field-independent basis, Debye-Ang):
   XX=            -50.3687   YY=            -61.2402   ZZ=            -61.2954
   XY=             15.2217   XZ=             -0.0200   YZ=             -0.0007

 Normal termination of Gaussian 09 at Mon Jan 14 11:32:37 2019.
