 Gaussian 09, Revision A.02,
 Gaussian 09:  EM64L-G09RevA.02 11-Jun-2009

 -------------------------------------------------------------------
 #HF/6-31G* SCF=tight Test Pop=MK iop(6/33=2) NoSymm iop(6/42=6) opt
 -------------------------------------------------------------------

 ---------------------
 remark line goes here
 ---------------------
 Symbolic Z-matrix:
 Charge =  0 Multiplicity = 1

 SCF Done:  E(RHF) =  -573.767937559     A.U. after   12 cycles
 SCF Done:  E(RHF) =  -573.780348869     A.U. after   11 cycles
 SCF Done:  E(RHF) =  -573.781662825     A.U. after   10 cycles
 SCF Done:  E(RHF) =  -573.781766809     A.U. after    8 cycles
 SCF Done:  E(RHF) =  -573.781770187     A.U. after    7 cycles
 Optimization completed.
    -- Stationary point found.

                          Input orientation:
 ---------------------------------------------------------------------
 Center     Atomic      Atomic             Coordinates (Angstroms)
 Number     Number       Type             X           Y           Z
 ---------------------------------------------------------------------
      1          6           0       -3.874281    1.104008    0.049117
      2          1           0       -3.475442    0.101686    0.121982
      3          1           0       -3.517062    1.559865   -0.872205
      4          1           0       -4.960404    1.049598    0.008893
      5          8           0       -3.441433    1.811119    1.167696
      6          6           0       -3.879952    3.133545    1.215101
      7          1           0       -4.966955    3.184090    1.225469
      8          1           0       -3.529957    3.692004    0.349153
      9          6           0       -3.328142    3.755546    2.480479
     10          1           0       -2.241744    3.706302    2.470002
     11          1           0       -3.678723    3.198493    3.346262
     12          8           0       -3.766764    5.079588    2.528493
     13          6           0       -3.338772    5.796967    3.645966
     14          1           0       -2.252754    5.839454    3.688010
     15          1           0       -3.689656    5.331667    4.564327
     16          6           0       -3.901333    7.198593    3.535719
     17          1           0       -3.550443    7.663902    2.617409
     18          1           0       -4.987316    7.156114    3.493686
     19          8           0       -3.473297    7.915956    4.653295
     20          6           0       -3.911738    9.240014    4.701488
     21          1           0       -4.998164    9.290076    4.712459
     22          1           0       -3.561078    9.797840    3.836147
     23          6           0       -3.360782    9.863143    5.966078
     24          1           0       -2.275581    9.808917    5.950214
     25          1           0       -3.713054    9.301018    6.826760
     26          8           0       -3.808957   11.191807    6.000974
     27          1           0       -3.484277   11.618488    6.780640
 ---------------------------------------------------------------------

 Alpha  occ. eigenvalues --  -20.56202 -20.56198 -20.56039 -20.56022 -11.27071
 Alpha  occ. eigenvalues --  -11.27042 -11.26977 -11.26956 -11.26896 -11.26867
 Alpha  occ. eigenvalues --  -11.26825  -1.39559  -1.38767  -1.37951  -1.36572
 Alpha  occ. eigenvalues --   -1.05537  -1.01679  -0.96327  -0.90447  -0.83932
 Alpha  occ. eigenvalues --   -0.83523  -0.82989  -0.71465  -0.70436  -0.68609
 Alpha  occ. eigenvalues --   -0.68033  -0.65897  -0.65777  -0.64006  -0.62210
 Alpha  occ. eigenvalues --   -0.62082  -0.60729  -0.57873  -0.56794  -0.53794
 Alpha  occ. eigenvalues --   -0.52955  -0.50536  -0.49399  -0.47512  -0.46944
 Alpha  occ. eigenvalues --   -0.46827  -0.44295  -0.42102  -0.41956  -0.41936
 Alpha virt. eigenvalues --    0.22187   0.23664   0.24120   0.24458   0.28722
 Alpha virt. eigenvalues --    0.28981   0.29195   0.30412   0.30497   0.31676
 Alpha virt. eigenvalues --    0.32585   0.32729   0.33704   0.34421   0.35087

 Mulliken atomic charges:
              1
     1  C   -0.159372
     2  H    0.177625
     3  H    0.143164
     4  H    0.143166
     5  O   -0.619578
     6  C    0.012642
     7  H    0.151161
     8  H    0.151169
     9  C    0.017240
    10  H    0.154594
    11  H    0.154589
    12  O   -0.651157
    13  C    0.017250
    14  H    0.153594
    15  H    0.153594
    16  C    0.016979
    17  H    0.153983
    18  H    0.153983
    19  O   -0.650462
    20  C    0.020357
    21  H    0.155421
    22  H    0.155421
    23  C   -0.006446
    24  H    0.152290
    25  H    0.152290
    26  O   -0.747719
    27  H    0.444222
 Sum of Mulliken atomic charges =   0.00000

 Dipole moment (field-independent basis, Debye):
    X=              0.2013    Y=             -0.1773    Z=              0.2284  Tot=              0.3523
 Quadrupole moment (field-independent basis, Debye-Ang):
   XX=            -69.5783   YY=            -69.9636   ZZ=            -54.6153
   XY=              8.4596   XZ=              3.1385   YZ=             11.5968

 Normal termination of Gaussian 09 at Mon May  1 18:07:00 2017.
