 Gaussian 09, Revision A.02,
 Gaussian 09:  EM64L-G09RevA.02 11-Jun-2009

 -------------------------------------------------------------------
 #HF/6-31G* SCF=tight Test Pop=MK iop(6/33=2) NoSymm iop(6/42=6) opt
 -------------------------------------------------------------------

 ---------------------
 remark line goes here
 ---------------------
 Symbolic Z-matrix:
 Charge =  0 Multiplicity = 1

 SCF Done:  E(RHF) =  -728.739003020     A.U. after   14 cycles
 SCF Done:  E(RHF) =  -728.770445182     A.U. after   13 cycles
 SCF Done:  E(RHF) =  -728.789894720     A.U. after   15 cycles
 SCF Done:  E(RHF) =  -728.794445519     A.U. after   13 cycles
 SCF Done:  E(RHF) =  -728.795712427     A.U. after   12 cycles
 SCF Done:  E(RHF) =  -728.793997775     A.U. after   13 cycles
 SCF Done:  E(RHF) =  -728.797376801     A.U. after   12 cycles
 SCF Done:  E(RHF) =  -728.797571152     A.U. after   12 cycles
 SCF Done:  E(RHF) =  -728.797760625     A.U. after   13 cycles
 SCF Done:  E(RHF) =  -728.796981431     A.U. after   15 cycles
 SCF Done:  E(RHF) =  -728.801084526     A.U. after   15 cycles
 SCF Done:  E(RHF) =  -728.800795249     A.U. after   13 cycles
 SCF Done:  E(RHF) =  -728.795613977     A.U. after   13 cycles
 SCF Done:  E(RHF) =  -728.801310061     A.U. after   13 cycles
 SCF Done:  E(RHF) =  -728.800623977     A.U. after   12 cycles
 SCF Done:  E(RHF) =  -728.801359061     A.U. after   11 cycles
 SCF Done:  E(RHF) =  -728.801372841     A.U. after   10 cycles
 SCF Done:  E(RHF) =  -728.801373976     A.U. after   10 cycles
 SCF Done:  E(RHF) =  -728.801374104     A.U. after    8 cycles
 SCF Done:  E(RHF) =  -728.801374131     A.U. after    7 cycles
 Optimization completed.
    -- Stationary point found.

                          Input orientation:
 ---------------------------------------------------------------------
 Center     Atomic      Atomic             Coordinates (Angstroms)
 Number     Number       Type             X           Y           Z
 ---------------------------------------------------------------------
      1          6           0        0.379865    0.127411   -0.699640
      2          1           0        1.311215    0.327227   -0.183405
      3          1           0        0.640966   -0.322293   -1.654667
      4          6           0       -0.338431    1.453746   -0.955976
      5          1           0        0.323879    2.134835   -1.481045
      6          1           0       -1.223155    1.326415   -1.571078
      7          1           0       -0.630883    1.933070   -0.029232
      8          6           0       -0.404631   -0.928623    0.104718
      9          6           0        0.441473   -2.216335    0.192477
     10          1           0        1.410409   -2.017897    0.639025
     11          1           0       -0.058188   -2.976543    0.782456
     12          1           0        0.605627   -2.616591   -0.802674
     13          6           0       -1.754572   -1.255938   -0.554144
     14          1           0       -2.441433   -0.418295   -0.515387
     15          1           0       -1.596187   -1.509650   -1.597810
     16          1           0       -2.233319   -2.097234   -0.070507
     17          6           0       -0.596825   -0.445240    1.540187
     18          8           0        0.046560    0.406488    2.065405
     19          8           0       -1.540694   -1.121909    2.184208
     20          6           0       -1.764098   -0.799944    3.548636
     21          1           0       -0.862655   -0.965907    4.120627
     22          1           0       -2.041973    0.239709    3.642926
     23          6           0       -2.881097   -1.703318    4.025620
     24          1           0       -3.775734   -1.536102    3.429690
     25          1           0       -2.593357   -2.745918    3.908096
     26          8           0       -3.109643   -1.397270    5.365234
     27          6           0       -4.121123   -2.144475    5.973315
     28          1           0       -5.070989   -1.995791    5.465306
     29          1           0       -3.888827   -3.206382    5.944143
     30          6           0       -4.232158   -1.684088    7.411486
     31          1           0       -3.280529   -1.831059    7.918314
     32          1           0       -4.462757   -0.621030    7.439675
     33          8           0       -5.241581   -2.431361    8.015632
     34          6           0       -5.463706   -2.118077    9.354463
     35          1           0       -6.260648   -2.755844    9.710952
     36          1           0       -4.574387   -2.294089    9.956243
     37          1           0       -5.762413   -1.078698    9.474731
 ---------------------------------------------------------------------

 Alpha  occ. eigenvalues --  -20.60621 -20.56912 -20.56287 -20.54506 -11.37049
 Alpha  occ. eigenvalues --  -11.28344 -11.28073 -11.27456 -11.27209 -11.27025
 Alpha  occ. eigenvalues --  -11.24976 -11.22189 -11.21772 -11.21709 -11.20557
 Alpha  occ. eigenvalues --   -1.47192  -1.39869  -1.38489  -1.36338  -1.11683
 Alpha  occ. eigenvalues --   -1.05883  -1.00988  -0.99386  -0.94282  -0.92051
 Alpha  occ. eigenvalues --   -0.87804  -0.85904  -0.83914  -0.81507  -0.76000
 Alpha  occ. eigenvalues --   -0.71058  -0.68626  -0.68504  -0.67792  -0.66990
 Alpha  occ. eigenvalues --   -0.65221  -0.64915  -0.62460  -0.61542  -0.60986
 Alpha  occ. eigenvalues --   -0.59641  -0.58715  -0.57674  -0.56251  -0.55115
 Alpha  occ. eigenvalues --   -0.53996  -0.53368  -0.52105  -0.51343  -0.50694
 Alpha  occ. eigenvalues --   -0.50301  -0.48702  -0.48418  -0.47292  -0.46176
 Alpha  occ. eigenvalues --   -0.45734  -0.45315  -0.42733  -0.42531  -0.42234
 Alpha virt. eigenvalues --    0.19557   0.22198   0.23447   0.23586   0.26415
 Alpha virt. eigenvalues --    0.27151   0.28238   0.28631   0.28777   0.29185
 Alpha virt. eigenvalues --    0.29825   0.30872   0.31333   0.31961   0.32309

 Mulliken atomic charges:
              1
     1  C   -0.285250
     2  H    0.186656
     3  H    0.155853
     4  C   -0.497440
     5  H    0.164838
     6  H    0.154997
     7  H    0.182615
     8  C   -0.143721
     9  C   -0.485381
    10  H    0.179593
    11  H    0.178943
    12  H    0.173686
    13  C   -0.472086
    14  H    0.171091
    15  H    0.164337
    16  H    0.182044
    17  C    0.837646
    18  O   -0.580571
    19  O   -0.651004
    20  C   -0.008629
    21  H    0.191494
    22  H    0.192490
    23  C    0.015875
    24  H    0.155137
    25  H    0.154005
    26  O   -0.649337
    27  C    0.014821
    28  H    0.156338
    29  H    0.156178
    30  C    0.012628
    31  H    0.152814
    32  H    0.152874
    33  O   -0.619976
    34  C   -0.160297
    35  H    0.178369
    36  H    0.144163
    37  H    0.144204
 Sum of Mulliken atomic charges =   0.00000

 Dipole moment (field-independent basis, Debye):
    X=             -1.2045    Y=             -1.4282    Z=             -0.0289  Tot=              1.8685
 Quadrupole moment (field-independent basis, Debye-Ang):
   XX=            -92.3311   YY=            -94.7602   ZZ=            -78.0922
   XY=             -2.7522   XZ=             -7.9226   YZ=             -2.0426

 Normal termination of Gaussian 09 at Tue May 15 17:29:00 2018.
