 Gaussian 09, Revision A.02,
 Gaussian 09:  EM64L-G09RevA.02 11-Jun-2009

 -------------------------------------------------------------------
 #HF/6-31G* SCF=tight Test Pop=MK iop(6/33=2) NoSymm iop(6/42=6) opt
 -------------------------------------------------------------------

 ---------------------
 remark line goes here
 ---------------------
 Symbolic Z-matrix:
 Charge =  0 Multiplicity = 1

 SCF Done:  E(RHF) =  -1185.41282427     A.U. after   12 cycles
 SCF Done:  E(RHF) =  -1185.43782507     A.U. after   10 cycles
 SCF Done:  E(RHF) =  -1185.44256952     A.U. after   10 cycles
 SCF Done:  E(RHF) =  -1185.44271662     A.U. after    8 cycles
 SCF Done:  E(RHF) =  -1185.44273550     A.U. after    7 cycles
 Optimization completed.
    -- Stationary point found.

                         Z-Matrix orientation:
 ---------------------------------------------------------------------
 Center     Atomic      Atomic             Coordinates (Angstroms)
 Number     Number       Type             X           Y           Z
 ---------------------------------------------------------------------
      1          6           0       -3.886380    1.245180    0.110307
      2          1           0       -3.490199    0.241423    0.178315
      3          1           0       -3.528874    1.704214   -0.809365
      4          1           0       -4.972733    1.193980    0.071110
      5          8           0       -3.450345    1.946138    1.231550
      6          6           0       -3.885006    3.269536    1.285673
      7          1           0       -4.971889    3.323115    1.298004
      8          1           0       -3.534811    3.830953    0.421664
      9          6           0       -3.329275    3.883955    2.553051
     10          1           0       -2.243025    3.831821    2.540588
     11          1           0       -3.680048    3.324002    3.416894
     12          8           0       -3.764098    5.209120    2.607933
     13          6           0       -3.332363    5.920124    3.727946
     14          1           0       -2.246167    5.959595    3.768529
     15          1           0       -3.683149    5.451791    4.644810
     16          6           0       -3.891594    7.323539    3.624162
     17          1           0       -3.540726    7.791969    2.707394
     18          1           0       -4.977784    7.284138    3.583721
     19          8           0       -3.460068    8.035216    4.744222
     20          6           0       -3.894792    9.359877    4.798974
     21          1           0       -4.981122    9.412250    4.811466
     22          1           0       -3.544081    9.920076    3.935151
     23          6           0       -3.338553    9.973477    6.066712
     24          1           0       -2.252242    9.921172    6.054220
     25          1           0       -3.689291    9.413345    6.930540
     26          8           0       -3.773257   11.298289    6.121583
     27          6           0       -3.341696   12.009797    7.241609
     28          1           0       -2.255520   12.049309    7.282119
     29          1           0       -3.692574   11.541495    8.158429
     30          6           0       -3.901051   13.413140    7.137556
     31          1           0       -3.550170   13.881451    6.220747
     32          1           0       -4.987223   13.373630    7.097049
     33          8           0       -3.469488   14.124641    8.257600
     34          6           0       -3.904161   15.449474    8.312446
     35          1           0       -4.990467   15.501816    8.324897
     36          1           0       -3.553376   16.009596    7.448636
     37          6           0       -3.347956   16.063068    9.580207
     38          1           0       -2.261624   16.010645    9.567751
     39          1           0       -3.698720   15.502868   10.444012
     40          8           0       -3.782610   17.387750    9.634991
     41          6           0       -3.351132   18.099462   10.755041
     42          1           0       -2.264927   18.138785   10.795525
     43          1           0       -3.702026   17.631003   11.671799
     44          6           0       -3.910237   19.502968   10.651404
     45          1           0       -4.996412   19.463587   10.610800
     46          1           0       -3.559423   19.971331    9.734594
     47          8           0       -3.478490   20.213994   11.771503
     48          6           0       -3.913121   21.539167   11.826599
     49          1           0       -4.999399   21.592110   11.839516
     50          1           0       -3.562241   22.099903   10.963217
     51          6           0       -3.358332   22.154818   13.093225
     52          1           0       -2.273267   22.097736   13.075481
     53          1           0       -3.710783   21.589816   13.951998
     54          8           0       -3.802784   23.484497   13.134825
     55          1           0       -3.475775   23.906830   13.915859
 ---------------------------------------------------------------------

 Alpha  occ. eigenvalues --  -20.56382 -20.56381 -20.56358 -20.56354 -20.56264
 Alpha  occ. eigenvalues --  -20.56264 -20.56076 -20.56055 -11.27206 -11.27196
 Alpha  occ. eigenvalues --  -11.27194 -11.27152 -11.27147 -11.27141 -11.27131
 Alpha  occ. eigenvalues --  -11.27129 -11.27118 -11.27072 -11.27072 -11.27003
 Alpha  occ. eigenvalues --  -11.26948 -11.26912 -11.26856  -1.39955  -1.39691
 Alpha  occ. eigenvalues --   -1.39335  -1.38918  -1.38485  -1.38103  -1.37860
 Alpha  occ. eigenvalues --   -1.36615  -1.06743  -1.05611  -1.03878  -1.01631
 Alpha  occ. eigenvalues --   -0.98984  -0.96096  -0.93258  -0.90289  -0.84963
 Alpha  occ. eigenvalues --   -0.83957  -0.83740  -0.83628  -0.83315  -0.83038
 Alpha  occ. eigenvalues --   -0.83005  -0.71545  -0.71062  -0.70555  -0.70076
 Alpha  occ. eigenvalues --   -0.69780  -0.68737  -0.68706  -0.67433  -0.66812
 Alpha  occ. eigenvalues --   -0.66344  -0.65888  -0.65147  -0.64685  -0.64146
 Alpha  occ. eigenvalues --   -0.63197  -0.62640  -0.62299  -0.61107  -0.60666
 Alpha  occ. eigenvalues --   -0.60042  -0.60024  -0.57978  -0.57931  -0.55837
 Alpha  occ. eigenvalues --   -0.55377  -0.53839  -0.53281  -0.52052  -0.51778
 Alpha  occ. eigenvalues --   -0.50609  -0.49680  -0.49398  -0.47719  -0.47432
 Alpha  occ. eigenvalues --   -0.47188  -0.47049  -0.47017  -0.46978  -0.46882
 Alpha  occ. eigenvalues --   -0.44336  -0.42326  -0.42231  -0.42140  -0.42113
 Alpha  occ. eigenvalues --   -0.42050  -0.42038  -0.41980
 Alpha virt. eigenvalues --    0.22139   0.23405   0.23532   0.23709   0.23985
 Alpha virt. eigenvalues --    0.24213   0.24450   0.24573   0.28138   0.28669
 Alpha virt. eigenvalues --    0.28891   0.29003   0.29388   0.29463   0.29892

 Mulliken atomic charges:
              1
     1  C   -0.159409
     2  H    0.177774
     3  H    0.143170
     4  H    0.143170
     5  O   -0.619529
     6  C    0.012749
     7  H    0.151094
     8  H    0.151094
     9  C    0.017021
    10  H    0.154860
    11  H    0.154860
    12  O   -0.651338
    13  C    0.017315
    14  H    0.154094
    15  H    0.154094
    16  C    0.016877
    17  H    0.154000
    18  H    0.154000
    19  O   -0.651034
    20  C    0.017094
    21  H    0.154120
    22  H    0.154120
    23  C    0.016857
    24  H    0.154310
    25  H    0.154310
    26  O   -0.651126
    27  C    0.016958
    28  H    0.154240
    29  H    0.154240
    30  C    0.016935
    31  H    0.154285
    32  H    0.154285
    33  O   -0.651168
    34  C    0.016837
    35  H    0.154367
    36  H    0.154367
    37  C    0.017116
    38  H    0.154061
    39  H    0.154061
    40  O   -0.650948
    41  C    0.016853
    42  H    0.153813
    43  H    0.153813
    44  C    0.017006
    45  H    0.154310
    46  H    0.154310
    47  O   -0.650560
    48  C    0.020152
    49  H    0.155647
    50  H    0.155647
    51  C   -0.006391
    52  H    0.152280
    53  H    0.152280
    54  O   -0.747634
    55  H    0.444292
 Sum of Mulliken atomic charges =   0.00000

 Dipole moment (field-independent basis, Debye):
    X=              0.2014    Y=             -0.1799    Z=              0.2260  Tot=              0.3521
 Quadrupole moment (field-independent basis, Debye-Ang):
   XX=           -142.1368   YY=           -144.1388   ZZ=           -113.5146
   XY=             16.3406   XZ=              7.0917   YZ=             23.3519

 Normal termination of Gaussian 09 at Tue May  2 11:27:08 2017.
