 Gaussian 09, Revision A.02,
 Gaussian 09:  EM64L-G09RevA.02 11-Jun-2009

 -------------------------------------------------------------------
 #HF/6-31G* SCF=tight Test Pop=MK iop(6/33=2) NoSymm iop(6/42=6) opt
 -------------------------------------------------------------------

 ---------------------
 remark line goes here
 ---------------------
 Symbolic Z-matrix:
 Charge =  0 Multiplicity = 1

 SCF Done:  E(RHF) =  -420.856686685     A.U. after   12 cycles
 SCF Done:  E(RHF) =  -420.865454719     A.U. after   11 cycles
 SCF Done:  E(RHF) =  -420.866430494     A.U. after   10 cycles
 SCF Done:  E(RHF) =  -420.866503766     A.U. after    8 cycles
 SCF Done:  E(RHF) =  -420.866505875     A.U. after    7 cycles
 Optimization completed.
    -- Stationary point found.

                          Input orientation:
 ---------------------------------------------------------------------
 Center     Atomic      Atomic             Coordinates (Angstroms)
 Number     Number       Type             X           Y           Z
 ---------------------------------------------------------------------
      1          6           0       -3.887805    1.084373    0.016291
      2          1           0       -3.492172    0.080350    0.082900
      3          1           0       -3.531014    1.543936   -0.903379
      4          1           0       -4.974201    1.033729   -0.022020
      5          8           0       -3.450353    1.784037    1.137643
      6          6           0       -3.884338    3.107665    1.193134
      7          1           0       -4.971184    3.161624    1.205934
      8          1           0       -3.534356    3.669466    0.329304
      9          6           0       -3.328068    3.721606    2.460542
     10          1           0       -2.241887    3.668903    2.447649
     11          1           0       -3.678578    3.161204    3.324153
     12          8           0       -3.762427    5.046730    2.516136
     13          6           0       -3.329677    5.756937    3.636726
     14          1           0       -2.243512    5.796479    3.677034
     15          1           0       -3.680288    5.288745    4.553684
     16          6           0       -3.886625    7.160837    3.537034
     17          1           0       -3.534314    7.622880    2.618725
     18          1           0       -4.971558    7.114971    3.495639
     19          8           0       -3.444334    7.862382    4.668276
     20          1           0       -3.772926    8.749368    4.643270
 ---------------------------------------------------------------------

 Alpha  occ. eigenvalues --  -20.56101 -20.55998 -20.55988 -11.27025 -11.26884
 Alpha  occ. eigenvalues --  -11.26819 -11.26817 -11.26803  -1.39234  -1.38105
 Alpha  occ. eigenvalues --   -1.36522  -1.04449  -0.98334  -0.90641  -0.83445
 Alpha  occ. eigenvalues --   -0.83255  -0.71322  -0.69866  -0.66765  -0.66419
 Alpha  occ. eigenvalues --   -0.65265  -0.62165  -0.61629  -0.59315  -0.56462
 Alpha  occ. eigenvalues --   -0.53704  -0.51436  -0.49449  -0.47316  -0.46765
 Alpha  occ. eigenvalues --   -0.44252  -0.41975  -0.41873
 Alpha virt. eigenvalues --    0.22233   0.23869   0.24365   0.28842   0.29203
 Alpha virt. eigenvalues --    0.29979   0.31077   0.31747   0.32347   0.34321
 Alpha virt. eigenvalues --    0.34472   0.36273   0.37204   0.37474   0.42006

 Mulliken atomic charges:
              1
     1  C   -0.159172
     2  H    0.177676
     3  H    0.142869
     4  H    0.142871
     5  O   -0.619314
     6  C    0.012698
     7  H    0.150549
     8  H    0.150557
     9  C    0.017120
    10  H    0.154864
    11  H    0.154859
    12  O   -0.650803
    13  C    0.020553
    14  H    0.155430
    15  H    0.155431
    16  C   -0.006359
    17  H    0.151879
    18  H    0.151880
    19  O   -0.747642
    20  H    0.444053
 Sum of Mulliken atomic charges =   0.00000

 Dipole moment (field-independent basis, Debye):
    X=             -1.0427    Y=              0.7049    Z=             -1.3001  Tot=              1.8095
 Quadrupole moment (field-independent basis, Debye-Ang):
   XX=            -42.3851   YY=            -34.9212   ZZ=            -55.9545
   XY=             -8.4184   XZ=              1.1919   YZ=             -1.1496

 Normal termination of Gaussian 09 at Mon May  1 18:02:59 2017.
