 Gaussian 09, Revision A.02,
 Gaussian 09:  EM64L-G09RevA.02 11-Jun-2009

 -------------------------------------------------------------------
 #HF/6-31G* SCF=tight Test Pop=MK iop(6/33=2) NoSymm iop(6/42=6) opt
 -------------------------------------------------------------------

 ---------------------
 remark line goes here
 ---------------------
 Symbolic Z-matrix:
 Charge =  0 Multiplicity = 1

 SCF Done:  E(RHF) =  -1032.50159325     A.U. after   12 cycles
 SCF Done:  E(RHF) =  -1032.52385237     A.U. after   10 cycles
 SCF Done:  E(RHF) =  -1032.52733717     A.U. after   10 cycles
 SCF Done:  E(RHF) =  -1032.52747650     A.U. after    8 cycles
 SCF Done:  E(RHF) =  -1032.52749188     A.U. after    7 cycles
 Optimization completed.
    -- Stationary point found.

                          Input orientation:
 ---------------------------------------------------------------------
 Center     Atomic      Atomic             Coordinates (Angstroms)
 Number     Number       Type             X           Y           Z
 ---------------------------------------------------------------------
      1          6           0       -3.892285    1.216740    0.084286
      2          1           0       -3.496688    0.212685    0.151150
      3          1           0       -3.534849    1.676457   -0.835068
      4          1           0       -4.978678    1.166226    0.045432
      5          8           0       -3.455415    1.916324    1.206053
      6          6           0       -3.889265    3.239922    1.261630
      7          1           0       -4.976108    3.294136    1.274413
      8          1           0       -3.539053    3.801973    0.398045
      9          6           0       -3.332719    3.852796    2.529394
     10          1           0       -2.246510    3.800027    2.516481
     11          1           0       -3.683504    3.292211    3.392813
     12          8           0       -3.766743    5.178160    2.585709
     13          6           0       -3.334162    5.887803    3.706271
     14          1           0       -2.247936    5.926585    3.746491
     15          1           0       -3.684889    5.418783    4.622797
     16          6           0       -3.892575    7.291659    3.604101
     17          1           0       -3.541769    7.760767    2.687656
     18          1           0       -4.978803    7.252937    3.564012
     19          8           0       -3.460217    8.001963    4.724682
     20          6           0       -3.894120    9.326827    4.780905
     21          1           0       -4.980415    9.379827    4.793839
     22          1           0       -3.543396    9.887652    3.917493
     23          6           0       -3.337088    9.938928    6.049019
     24          1           0       -2.250821    9.886001    6.036093
     25          1           0       -3.687833    9.378180    6.912433
     26          8           0       -3.771025   11.263927    6.105263
     27          6           0       -3.338619   11.974118    7.225862
     28          1           0       -2.252423   12.012947    7.266007
     29          1           0       -3.689439   11.505138    8.142337
     30          6           0       -3.897156   13.377903    7.123426
     31          1           0       -3.546349   13.846845    6.206886
     32          1           0       -4.983383   13.339024    7.083218
     33          8           0       -3.464814   14.088045    8.243911
     34          6           0       -3.898637   15.413103    8.300292
     35          1           0       -4.984947   15.465954    8.313062
     36          1           0       -3.547870   15.973737    7.436766
     37          6           0       -3.341849   16.025640    9.568339
     38          1           0       -2.255575   15.972670    9.555580
     39          1           0       -3.692541   15.464929   10.431807
     40          8           0       -3.775948   17.350425    9.624103
     41          6           0       -3.343620   18.061048   10.744866
     42          1           0       -2.257452   18.100573   10.785325
     43          1           0       -3.694576   17.592773   11.661659
     44          6           0       -3.900737   19.464868   10.644692
     45          1           0       -4.985681   19.419078   10.603059
     46          1           0       -3.548191   19.927008    9.726503
     47          8           0       -3.458605   20.166105   11.776098
     48          1           0       -3.787125   21.053110   11.751315
 ---------------------------------------------------------------------

 Alpha  occ. eigenvalues --  -20.56365 -20.56349 -20.56347 -20.56260 -20.56259
 Alpha  occ. eigenvalues --  -20.56073 -20.56053 -11.27184 -11.27182 -11.27145
 Alpha  occ. eigenvalues --  -11.27141 -11.27119 -11.27117 -11.27114 -11.27065
 Alpha  occ. eigenvalues --  -11.27065 -11.26998 -11.26943 -11.26908 -11.26854
 Alpha  occ. eigenvalues --   -1.39908  -1.39577  -1.39138  -1.38646  -1.38178
 Alpha  occ. eigenvalues --   -1.37863  -1.36611  -1.06608  -1.05163  -1.02971
 Alpha  occ. eigenvalues --   -1.00172  -0.96962  -0.93676  -0.90299  -0.84797
 Alpha  occ. eigenvalues --   -0.83910  -0.83555  -0.83464  -0.83134  -0.82967
 Alpha  occ. eigenvalues --   -0.71540  -0.70992  -0.70342  -0.69867  -0.69344
 Alpha  occ. eigenvalues --   -0.68107  -0.68004  -0.66334  -0.66230  -0.65922
 Alpha  occ. eigenvalues --   -0.64654  -0.64387  -0.63535  -0.62285  -0.62271
 Alpha  occ. eigenvalues --   -0.61429  -0.60152  -0.59718  -0.59327  -0.57319
 Alpha  occ. eigenvalues --   -0.56294  -0.54955  -0.53742  -0.52775  -0.51940
 Alpha  occ. eigenvalues --   -0.50965  -0.49763  -0.49395  -0.47699  -0.47350
 Alpha  occ. eigenvalues --   -0.47102  -0.47004  -0.46972  -0.46878  -0.44332
 Alpha  occ. eigenvalues --   -0.42297  -0.42184  -0.42101  -0.42053  -0.42027
 Alpha  occ. eigenvalues --   -0.41976
 Alpha virt. eigenvalues --    0.22143   0.23450   0.23590   0.23860   0.24093
 Alpha virt. eigenvalues --    0.24441   0.24545   0.28207   0.28878   0.28886
 Alpha virt. eigenvalues --    0.29027   0.29532   0.29872   0.30073   0.30629

 Mulliken atomic charges:
              1
     1  C   -0.159398
     2  H    0.177787
     3  H    0.143148
     4  H    0.143148
     5  O   -0.619505
     6  C    0.012757
     7  H    0.151065
     8  H    0.151065
     9  C    0.017015
    10  H    0.154883
    11  H    0.154883
    12  O   -0.651367
    13  C    0.017286
    14  H    0.154137
    15  H    0.154137
    16  C    0.016916
    17  H    0.153937
    18  H    0.153937
    19  O   -0.650979
    20  C    0.017119
    21  H    0.154030
    22  H    0.154030
    23  C    0.016862
    24  H    0.154367
    25  H    0.154367
    26  O   -0.651236
    27  C    0.016856
    28  H    0.154389
    29  H    0.154390
    30  C    0.017126
    31  H    0.154001
    32  H    0.154001
    33  O   -0.650913
    34  C    0.016886
    35  H    0.153766
    36  H    0.153767
    37  C    0.016985
    38  H    0.154336
    39  H    0.154336
    40  O   -0.650578
    41  C    0.020151
    42  H    0.155659
    43  H    0.155659
    44  C   -0.006386
    45  H    0.152258
    46  H    0.152258
    47  O   -0.747621
    48  H    0.444282
 Sum of Mulliken atomic charges =   0.00000

 Dipole moment (field-independent basis, Debye):
    X=             -1.0390    Y=              0.7002    Z=             -1.2982  Tot=              1.8042
 Quadrupole moment (field-independent basis, Debye-Ang):
   XX=           -114.9749   YY=            -87.4047   ZZ=           -136.6181
   XY=            -15.8024   XZ=             -3.7304   YZ=             -1.8721

 Normal termination of Gaussian 09 at Tue May  2 10:48:07 2017.
