 Gaussian 09, Revision A.02,
 Gaussian 09:  EM64L-G09RevA.02 11-Jun-2009

 -------------------------------------------------------------------
 #HF/6-31G* SCF=tight Test Pop=MK iop(6/33=2) NoSymm iop(6/42=6) opt
 -------------------------------------------------------------------

 ---------------------
 remark line goes here
 ---------------------
 Symbolic Z-matrix:
 Charge =  0 Multiplicity = 1

 SCF Done:  E(RHF) =  -726.679133598     A.U. after   12 cycles
 SCF Done:  E(RHF) =  -726.695166605     A.U. after   10 cycles
 SCF Done:  E(RHF) =  -726.696873698     A.U. after   10 cycles
 SCF Done:  E(RHF) =  -726.696999675     A.U. after    8 cycles
 SCF Done:  E(RHF) =  -726.697005530     A.U. after    7 cycles
 Optimization completed.
    -- Stationary point found.

                          Input orientation:
 ---------------------------------------------------------------------
 Center     Atomic      Atomic             Coordinates (Angstroms)
 Number     Number       Type             X           Y           Z
 ---------------------------------------------------------------------
      1          6           0       -3.889986    1.149459    0.049355
      2          1           0       -3.494268    0.145495    0.116446
      3          1           0       -3.532611    1.608970   -0.870104
      4          1           0       -4.976350    1.098756    0.010445
      5          8           0       -3.453256    1.849358    1.170954
      6          6           0       -3.887385    3.172882    1.226047
      7          1           0       -4.974220    3.226876    1.238747
      8          1           0       -3.537229    3.734705    0.362315
      9          6           0       -3.331123    3.786438    2.493601
     10          1           0       -2.244922    3.733868    2.480779
     11          1           0       -3.681836    3.226066    3.357165
     12          8           0       -3.765459    5.111688    2.549353
     13          6           0       -3.333046    5.821758    3.669768
     14          1           0       -2.246856    5.860736    3.710023
     15          1           0       -3.683731    5.352948    4.586384
     16          6           0       -3.891594    7.225550    3.567373
     17          1           0       -3.540855    7.694405    2.650772
     18          1           0       -4.977811    7.186589    3.527183
     19          8           0       -3.459415    7.936146    4.687709
     20          6           0       -3.893556    9.261016    4.743562
     21          1           0       -4.979873    9.313686    4.756290
     22          1           0       -3.542926    9.821500    3.879886
     23          6           0       -3.337035    9.874286    6.011376
     24          1           0       -2.250774    9.821567    5.998660
     25          1           0       -3.687614    9.313792    6.874999
     26          8           0       -3.771439   11.199034    6.066725
     27          6           0       -3.339229   11.909954    7.187305
     28          1           0       -2.253088   11.949718    7.227792
     29          1           0       -3.690096   11.441895    8.104222
     30          6           0       -3.896560   13.313646    7.086831
     31          1           0       -3.544065   13.775525    6.168515
     32          1           0       -4.981469   13.267557    7.045169
     33          8           0       -3.454610   14.015313    8.218048
     34          1           0       -3.783303   14.902259    8.192953
 ---------------------------------------------------------------------

 Alpha  occ. eigenvalues --  -20.56298 -20.56236 -20.56233 -20.56058 -20.56040
 Alpha  occ. eigenvalues --  -11.27107 -11.27106 -11.27096 -11.27032 -11.27030
 Alpha  occ. eigenvalues --  -11.26978 -11.26921 -11.26891 -11.26842  -1.39735
 Alpha  occ. eigenvalues --   -1.39163  -1.38476  -1.37895  -1.36595  -1.06089
 Alpha  occ. eigenvalues --   -1.03454  -0.99611  -0.95082  -0.90362  -0.84294
 Alpha  occ. eigenvalues --   -0.83732  -0.83177  -0.83018  -0.71512  -0.70722
 Alpha  occ. eigenvalues --   -0.69511  -0.68977  -0.67639  -0.66436  -0.65498
 Alpha  occ. eigenvalues --   -0.65144  -0.63726  -0.62502  -0.62243  -0.60545
 Alpha  occ. eigenvalues --   -0.59304  -0.58733  -0.55396  -0.55313  -0.52486
 Alpha  occ. eigenvalues --   -0.52351  -0.50117  -0.49390  -0.47612  -0.47107
 Alpha  occ. eigenvalues --   -0.46932  -0.46858  -0.44316  -0.42195  -0.42039
 Alpha  occ. eigenvalues --   -0.41998  -0.41958
 Alpha virt. eigenvalues --    0.22161   0.23580   0.23827   0.24273   0.24496
 Alpha virt. eigenvalues --    0.28463   0.28955   0.29029   0.29650   0.30097
 Alpha virt. eigenvalues --    0.30959   0.31306   0.31758   0.32408   0.33079

 Mulliken atomic charges:
              1
     1  C   -0.159375
     2  H    0.177769
     3  H    0.143110
     4  H    0.143110
     5  O   -0.619466
     6  C    0.012744
     7  H    0.151017
     8  H    0.151017
     9  C    0.017051
    10  H    0.154878
    11  H    0.154878
    12  O   -0.651413
    13  C    0.017202
    14  H    0.154197
    15  H    0.154197
    16  C    0.017106
    17  H    0.153710
    18  H    0.153710
    19  O   -0.650826
    20  C    0.017059
    21  H    0.153579
    22  H    0.153579
    23  C    0.016919
    24  H    0.154358
    25  H    0.154358
    26  O   -0.650607
    27  C    0.020196
    28  H    0.155634
    29  H    0.155635
    30  C   -0.006387
    31  H    0.152216
    32  H    0.152217
    33  O   -0.747622
    34  H    0.444248
 Sum of Mulliken atomic charges =   0.00000

 Dipole moment (field-independent basis, Debye):
    X=             -1.0398    Y=              0.7007    Z=             -1.2990  Tot=              1.8054
 Quadrupole moment (field-independent basis, Debye-Ang):
   XX=            -78.6845   YY=            -61.2237   ZZ=            -96.3016
   XY=            -12.1056   XZ=             -1.2652   YZ=             -1.5488

 Normal termination of Gaussian 09 at Mon May  1 18:10:36 2017.
